 *******************************************************************************
 ** Site#: 4000  E-mail support:    MrMOPAC@ATT.net    Version 20.079L 64BITS **
 *******************************************************************************
 ** Cite this program as: MOPAC2016, Version: 20.079L, James J. P. Stewart,   **
 ** Stewart Computational Chemistry, web: HTTP://OpenMOPAC.net. Days left: 182**
 *******************************************************************************
 **                                                                           **
 **                                MOPAC2016                                  **
 **                                                                           **
 *******************************************************************************

                              PM7 CALCULATION RESULTS

 *******************************************************************************
 *  CALCULATION DONE:                                Sun Mar 22 14:15:11 2020  *
 *  PM7        - The PM7 Hamiltonian to be used
 *  PDBOUT     - PRINT GEOMETY IN PDB FORMAT
 *  MOZYME     - USE LOCALIZED M.O.s IN SOLVING THE SCF EQUATIONS
 *  RAPID      - IN MOZYME SCF, USE ATOMS BEING OPTIMIZED ONLY
 *  RESIDUES   - DETERMINE THE SEQUENCE OF RESIDUES
 *  XYZ        - CARTESIAN COORDINATE SYSTEM TO BE USED
 *  T=         - A TIME OF 172800.0 SECONDS REQUESTED
 *  DUMP=N     - RESTART FILE WRITTEN EVERY  7200.000 SECONDS
 *  LOG        - GENERATE A LOG FILE
 *******************************************************************************
XYZ RAPID MOZYME PM7 LOG PDBOUT
 candidates/carbazochrome.pdb

   ATOM   CHEMICAL          X               Y               Z
  NUMBER   SYMBOL      (ANGSTROMS)     (ANGSTROMS)     (ANGSTROMS)
 
     1       O          4.76500000  *  -2.52800000  *   0.00000000  *
     2       O         -1.18300000  *   1.72900000  *   0.00000000  *
     3       O         -3.85200000  *  -2.90200000  *   0.00000000  *
     4       N          4.28800000  *   1.42700000  *   0.00000000  *
     5       N         -1.18300000  *  -1.35500000  *   0.00000000  *
     6       N         -2.52300000  *  -0.58600000  *   0.00000000  *
     7       N         -5.19100000  *  -0.58600000  *   0.00000000  *
     8       C          2.81400000  *  -0.58600000  *   0.00000000  *
     9       C          2.81400000  *   0.95000000  *   0.00000000  *
    10       C          4.28800000  *  -1.06400000  *   0.00000000  *
    11       C          0.14500000  *  -0.58600000  *   0.00000000  *
    12       C          1.48500000  *  -1.35500000  *   0.00000000  *
    13       C          0.14500000  *   0.95000000  *   0.00000000  *
    14       C          1.48500000  *   1.72900000  *   0.00000000  *
    15       C          5.19100000  *   0.18200000  *   0.00000000  *
    16       C          4.75500000  *   2.90200000  *   0.00000000  *
    17       C         -3.85200000  *  -1.36500000  *   0.00000000  *
 


          CARTESIAN COORDINATES 

    NO.       ATOM           X           Y           Z

     1         O          4.7650     -2.5280      0.0000
     2         O         -1.1830      1.7290      0.0000
     3         O         -3.8520     -2.9020      0.0000
     4         N          4.2880      1.4270      0.0000
     5         N         -1.1830     -1.3550      0.0000
     6         N         -2.5230     -0.5860      0.0000
     7         N         -5.1910     -0.5860      0.0000
     8         C          2.8140     -0.5860      0.0000
     9         C          2.8140      0.9500      0.0000
    10         C          4.2880     -1.0640      0.0000
    11         C          0.1450     -0.5860      0.0000
    12         C          1.4850     -1.3550      0.0000
    13         C          0.1450      0.9500      0.0000
    14         C          1.4850      1.7290      0.0000
    15         C          5.1910      0.1820      0.0000
    16         C          4.7550      2.9020      0.0000
    17         C         -3.8520     -1.3650      0.0000

 General Reference for PM7:
 "Optimization of Parameters for Semiempirical Methods VI: More Modifications to the 
 NDDO Approximations and Re-optimization of Parameters", J. J. P. Stewart, J. Mol. Mod., 1:32, 19 (2013)
 http://www.springerlink.com/openurl.asp?genre=article&id=doi:10.1007/s00894-012-1667-x

           Empirical Formula: C10 N4 O3  =    17 atoms



      MOLECULAR POINT GROUP   :   Cs  
           AMINO ACID (residue:   1) = UNK

   Ion Atom No.           Label               Charge (Distances are between charged sites predicted by Lewis structure theory)
 
    1   N    7   (ATOM      7  N4  UNK A   1)   +1  (2.7 Angstroms from anion  O    3, Label: ATOM      3  O3  UNK A   1)
                                                    (4.6 Angstroms from anion  O    2, Label: ATOM      2  O2  UNK A   1)
    2   C   12   (ATOM     12  C5  UNK A   1)   +1  (3.5 Angstroms from anion  O    1, Label: ATOM      1  O1  UNK A   1)
                                                    (4.1 Angstroms from anion  O    2, Label: ATOM      2  O2  UNK A   1)
    3   C   14   (ATOM     14  C7  UNK A   1)   +1  (2.7 Angstroms from anion  O    2, Label: ATOM      2  O2  UNK A   1)
                                                    (3.5 Angstroms from anion  C   16, Label: ATOM     16  C8  UNK A   1)
    4   C   15   (ATOM     15  CA  UNK A   1)   +1  (2.7 Angstroms from anion  O    1, Label: ATOM      1  O1  UNK A   1)
                                                    (2.8 Angstroms from anion  C   16, Label: ATOM     16  C8  UNK A   1)
 
    1   O    1   (ATOM      1  O1  UNK A   1)   -1  (2.7 Angstroms from cation  C   15, Label: ATOM     15  CA  UNK A   1)
                                                    (3.5 Angstroms from cation  C   12, Label: ATOM     12  C5  UNK A   1)
    2   O    2   (ATOM      2  O2  UNK A   1)   -1  (2.7 Angstroms from cation  C   14, Label: ATOM     14  C7  UNK A   1)
                                                    (4.1 Angstroms from cation  C   12, Label: ATOM     12  C5  UNK A   1)
                                                    (4.6 Angstroms from cation  N    7, Label: ATOM      7  N4  UNK A   1)
    3   O    3   (ATOM      3  O3  UNK A   1)   -1  (2.7 Angstroms from cation  N    7, Label: ATOM      7  N4  UNK A   1)
    4   C   16   (ATOM     16  C8  UNK A   1)   -1  (2.8 Angstroms from cation  C   15, Label: ATOM     15  CA  UNK A   1)
                                                    (3.5 Angstroms from cation  C   14, Label: ATOM     14  C7  UNK A   1)
           AMINO ACID (residue:   1) = UNK

          Geometry optimization using EF

          DIAGONAL MATRIX USED AS START HESSIAN

 CYCLE:     1 TIME:   0.008 TIME LEFT:  2.00D  GRAD.:   697.619 HEAT:  867.3013
 CYCLE:     2 TIME:   0.020 TIME LEFT:  2.00D  GRAD.:   629.623 HEAT:  731.6101
 CYCLE:     3 TIME:   0.016 TIME LEFT:  2.00D  GRAD.:   319.569 HEAT:  569.9432
 CYCLE:     4 TIME:   0.082 TIME LEFT:  2.00D  GRAD.:   290.983 HEAT:  518.5118
 CYCLE:     5 TIME:   0.023 TIME LEFT:  2.00D  GRAD.:   603.443 HEAT:  492.3510
 CYCLE:     6 TIME:   0.023 TIME LEFT:  2.00D  GRAD.:   498.568 HEAT:  467.4555
 CYCLE:     7 TIME:   0.043 TIME LEFT:  2.00D  GRAD.:   310.791 HEAT:  437.4735
 CYCLE:     8 TIME:   0.023 TIME LEFT:  2.00D  GRAD.:   251.912 HEAT:  410.2574
 CYCLE:     9 TIME:   0.023 TIME LEFT:  2.00D  GRAD.:   447.968 HEAT:  399.9504
 CYCLE:    10 TIME:   0.020 TIME LEFT:  2.00D  GRAD.:   323.407 HEAT:  372.5478
 CYCLE:    11 TIME:   0.043 TIME LEFT:  2.00D  GRAD.:   416.703 HEAT:  360.2037
 CYCLE:    12 TIME:   0.035 TIME LEFT:  2.00D  GRAD.:   221.941 HEAT:  347.6961
 CYCLE:    13 TIME:   0.020 TIME LEFT:  2.00D  GRAD.:   146.192 HEAT:  341.1238
 CYCLE:    14 TIME:   0.020 TIME LEFT:  2.00D  GRAD.:   158.589 HEAT:  336.9671
 CYCLE:    15 TIME:   0.023 TIME LEFT:  2.00D  GRAD.:   167.552 HEAT:  333.7066
 CYCLE:    16 TIME:   0.039 TIME LEFT:  2.00D  GRAD.:    89.622 HEAT:  331.1280
 CYCLE:    17 TIME:   0.035 TIME LEFT:  2.00D  GRAD.:    61.053 HEAT:  329.9164
 CYCLE:    18 TIME:   0.016 TIME LEFT:  2.00D  GRAD.:    72.126 HEAT:  328.7464
 CYCLE:    19 TIME:   0.020 TIME LEFT:  2.00D  GRAD.:    62.824 HEAT:  327.2104
 CYCLE:    20 TIME:   0.020 TIME LEFT:  2.00D  GRAD.:   121.298 HEAT:  326.5061
 CYCLE:    21 TIME:   0.020 TIME LEFT:  2.00D  GRAD.:   109.736 HEAT:  324.9255
 CYCLE:    22 TIME:   0.020 TIME LEFT:  2.00D  GRAD.:   139.833 HEAT:  324.3368
 CYCLE:    23 TIME:   0.016 TIME LEFT:  2.00D  GRAD.:    71.496 HEAT:  321.8139
 CYCLE:    24 TIME:   0.027 TIME LEFT:  2.00D  GRAD.:   157.382 HEAT:  321.5404
 CYCLE:    25 TIME:   0.020 TIME LEFT:  2.00D  GRAD.:   127.607 HEAT:  319.5109
 CYCLE:    26 TIME:   0.035 TIME LEFT:  2.00D  GRAD.:   146.534 HEAT:  318.9361
 CYCLE:    27 TIME:   0.016 TIME LEFT:  2.00D  GRAD.:    36.304 HEAT:  314.9767
 CYCLE:    28 TIME:   0.027 TIME LEFT:  2.00D  GRAD.:   102.982 HEAT:  313.6488
 CYCLE:    29 TIME:   0.020 TIME LEFT:  2.00D  GRAD.:    76.535 HEAT:  308.5311
 CYCLE:    30 TIME:   0.027 TIME LEFT:  2.00D  GRAD.:   163.582 HEAT:  307.0519
 CYCLE:    31 TIME:   0.020 TIME LEFT:  2.00D  GRAD.:    98.513 HEAT:  300.3917
 CYCLE:    32 TIME:   0.043 TIME LEFT:  2.00D  GRAD.:   160.599 HEAT:  300.1920
 CYCLE:    33 TIME:   0.020 TIME LEFT:  2.00D  GRAD.:    56.940 HEAT:  295.6853
 CYCLE:    34 TIME:   0.062 TIME LEFT:  2.00D  GRAD.:    62.196 HEAT:  294.8856
 CYCLE:    35 TIME:   0.020 TIME LEFT:  2.00D  GRAD.:    45.979 HEAT:  293.7909
 CYCLE:    36 TIME:   0.035 TIME LEFT:  2.00D  GRAD.:    59.172 HEAT:  293.3679
 CYCLE:    37 TIME:   0.020 TIME LEFT:  2.00D  GRAD.:    27.790 HEAT:  292.4950
 CYCLE:    38 TIME:   0.020 TIME LEFT:  2.00D  GRAD.:    42.029 HEAT:  291.4530
 CYCLE:    39 TIME:   0.023 TIME LEFT:  2.00D  GRAD.:    50.989 HEAT:  289.5151
 CYCLE:    40 TIME:   0.023 TIME LEFT:  2.00D  GRAD.:    77.618 HEAT:  286.1290
 CYCLE:    41 TIME:   0.027 TIME LEFT:  2.00D  GRAD.:   143.232 HEAT:  280.6026
 CYCLE:    42 TIME:   0.023 TIME LEFT:  2.00D  GRAD.:   234.605 HEAT:  276.3684
 CYCLE:    43 TIME:   0.039 TIME LEFT:  2.00D  GRAD.:   283.554 HEAT:  275.6408
 CYCLE:    44 TIME:   0.023 TIME LEFT:  2.00D  GRAD.:   180.978 HEAT:  271.1921
 CYCLE:    45 TIME:   0.043 TIME LEFT:  2.00D  GRAD.:   123.128 HEAT:  265.5651
 CYCLE:    46 TIME:   0.043 TIME LEFT:  2.00D  GRAD.:    95.798 HEAT:  264.6430
 CYCLE:    47 TIME:   0.020 TIME LEFT:  2.00D  GRAD.:    73.935 HEAT:  263.6437
 CYCLE:    48 TIME:   0.020 TIME LEFT:  2.00D  GRAD.:    91.451 HEAT:  263.6051
 CYCLE:    49 TIME:   0.023 TIME LEFT:  2.00D  GRAD.:    34.238 HEAT:  262.4271
 CYCLE:    50 TIME:   0.035 TIME LEFT:  2.00D  GRAD.:    36.808 HEAT:  262.1461
 CYCLE:    51 TIME:   0.016 TIME LEFT:  2.00D  GRAD.:    33.607 HEAT:  261.7260
 CYCLE:    52 TIME:   0.016 TIME LEFT:  2.00D  GRAD.:    22.248 HEAT:  261.1599
 CYCLE:    53 TIME:   0.020 TIME LEFT:  2.00D  GRAD.:    24.487 HEAT:  260.1946
 CYCLE:    54 TIME:   0.020 TIME LEFT:  2.00D  GRAD.:    19.110 HEAT:  258.8915
 CYCLE:    55 TIME:   0.020 TIME LEFT:  2.00D  GRAD.:    27.163 HEAT:  256.8798
 CYCLE:    56 TIME:   0.023 TIME LEFT:  2.00D  GRAD.:    61.860 HEAT:  255.1376
 CYCLE:    57 TIME:   0.023 TIME LEFT:  2.00D  GRAD.:    46.843 HEAT:  253.1870
 CYCLE:    58 TIME:   0.020 TIME LEFT:  2.00D  GRAD.:    54.750 HEAT:  251.5935
 CYCLE:    59 TIME:   0.023 TIME LEFT:  2.00D  GRAD.:    60.307 HEAT:  249.7268
 CYCLE:    60 TIME:   0.023 TIME LEFT:  2.00D  GRAD.:    61.169 HEAT:  247.8075
 CYCLE:    61 TIME:   0.023 TIME LEFT:  2.00D  GRAD.:    69.875 HEAT:  246.0844
 CYCLE:    62 TIME:   0.047 TIME LEFT:  2.00D  GRAD.:   100.100 HEAT:  245.5917
 CYCLE:    63 TIME:   0.023 TIME LEFT:  2.00D  GRAD.:   113.977 HEAT:  244.8080
 CYCLE:    64 TIME:   0.020 TIME LEFT:  2.00D  GRAD.:    91.406 HEAT:  243.9684
 CYCLE:    65 TIME:   0.020 TIME LEFT:  2.00D  GRAD.:    83.572 HEAT:  242.5277
 CYCLE:    66 TIME:   0.023 TIME LEFT:  2.00D  GRAD.:    72.970 HEAT:  241.9543
 CYCLE:    67 TIME:   0.020 TIME LEFT:  2.00D  GRAD.:    49.745 HEAT:  240.7525
 CYCLE:    68 TIME:   0.035 TIME LEFT:  2.00D  GRAD.:    52.725 HEAT:  240.6012
 CYCLE:    69 TIME:   0.016 TIME LEFT:  2.00D  GRAD.:    25.599 HEAT:  240.1709
 CYCLE:    70 TIME:   0.016 TIME LEFT:  2.00D  GRAD.:    27.060 HEAT:  239.8170
 CYCLE:    71 TIME:   0.020 TIME LEFT:  2.00D  GRAD.:    21.276 HEAT:  239.1708
 CYCLE:    72 TIME:   0.020 TIME LEFT:  2.00D  GRAD.:    26.954 HEAT:  238.1211
 CYCLE:    73 TIME:   0.023 TIME LEFT:  2.00D  GRAD.:    46.329 HEAT:  236.9197
 CYCLE:    74 TIME:   0.023 TIME LEFT:  2.00D  GRAD.:    54.273 HEAT:  235.4347
 CYCLE:    75 TIME:   0.027 TIME LEFT:  2.00D  GRAD.:    66.966 HEAT:  234.9904
 CYCLE:    76 TIME:   0.023 TIME LEFT:  2.00D  GRAD.:    89.425 HEAT:  234.3342
 CYCLE:    77 TIME:   0.020 TIME LEFT:  2.00D  GRAD.:    64.624 HEAT:  233.9134
 CYCLE:    78 TIME:   0.023 TIME LEFT:  2.00D  GRAD.:    59.089 HEAT:  233.5993
 CYCLE:    79 TIME:   0.023 TIME LEFT:  2.00D  GRAD.:    38.191 HEAT:  232.4126
 CYCLE:    80 TIME:   0.020 TIME LEFT:  2.00D  GRAD.:    33.203 HEAT:  232.0165
 CYCLE:    81 TIME:   0.020 TIME LEFT:  2.00D  GRAD.:    36.946 HEAT:  231.4076
 CYCLE:    82 TIME:   0.027 TIME LEFT:  2.00D  GRAD.:    37.940 HEAT:  230.4614
 CYCLE:    83 TIME:   0.023 TIME LEFT:  2.00D  GRAD.:    50.563 HEAT:  229.7767
 CYCLE:    84 TIME:   0.020 TIME LEFT:  2.00D  GRAD.:    49.941 HEAT:  229.3540
 CYCLE:    85 TIME:   0.027 TIME LEFT:  2.00D  GRAD.:    47.009 HEAT:  228.8417
 CYCLE:    86 TIME:   0.020 TIME LEFT:  2.00D  GRAD.:    50.609 HEAT:  228.6961
 CYCLE:    87 TIME:   0.020 TIME LEFT:  2.00D  GRAD.:    38.558 HEAT:  228.1156
 CYCLE:    88 TIME:   0.020 TIME LEFT:  2.00D  GRAD.:    31.802 HEAT:  227.9891
 CYCLE:    89 TIME:   0.023 TIME LEFT:  2.00D  GRAD.:    38.458 HEAT:  227.6611
 CYCLE:    90 TIME:   0.020 TIME LEFT:  2.00D  GRAD.:    32.702 HEAT:  227.3436
 CYCLE:    91 TIME:   0.020 TIME LEFT:  2.00D  GRAD.:    28.995 HEAT:  227.0087
 CYCLE:    92 TIME:   0.020 TIME LEFT:  2.00D  GRAD.:    21.257 HEAT:  226.6933
 CYCLE:    93 TIME:   0.020 TIME LEFT:  2.00D  GRAD.:    27.693 HEAT:  226.3103
 CYCLE:    94 TIME:   0.023 TIME LEFT:  2.00D  GRAD.:    31.799 HEAT:  225.9062
 CYCLE:    95 TIME:   0.023 TIME LEFT:  2.00D  GRAD.:    51.639 HEAT:  225.8213
 CYCLE:    96 TIME:   0.051 TIME LEFT:  2.00D  GRAD.:    29.312 HEAT:  225.6151
 CYCLE:    97 TIME:   0.016 TIME LEFT:  2.00D  GRAD.:    20.421 HEAT:  225.4338
 CYCLE:    98 TIME:   0.020 TIME LEFT:  2.00D  GRAD.:    19.817 HEAT:  225.2684
 CYCLE:    99 TIME:   0.020 TIME LEFT:  2.00D  GRAD.:    25.159 HEAT:  225.0817
 CYCLE:   100 TIME:   0.016 TIME LEFT:  2.00D  GRAD.:    14.999 HEAT:  224.9421
 CYCLE:   101 TIME:   0.020 TIME LEFT:  2.00D  GRAD.:    18.174 HEAT:  224.7430
 CYCLE:   102 TIME:   0.020 TIME LEFT:  2.00D  GRAD.:    22.126 HEAT:  224.5089
 CYCLE:   103 TIME:   0.020 TIME LEFT:  2.00D  GRAD.:    20.926 HEAT:  224.3377
 CYCLE:   104 TIME:   0.016 TIME LEFT:  2.00D  GRAD.:    13.534 HEAT:  224.2979
 CYCLE:   105 TIME:   0.023 TIME LEFT:  2.00D  GRAD.:    24.392 HEAT:  224.2578
 CYCLE:   106 TIME:   0.016 TIME LEFT:  2.00D  GRAD.:    12.656 HEAT:  224.1262
 CYCLE:   107 TIME:   0.016 TIME LEFT:  2.00D  GRAD.:     9.709 HEAT:  224.0794
 CYCLE:   108 TIME:   0.012 TIME LEFT:  2.00D  GRAD.:     7.554 HEAT:  224.0666
 CYCLE:   109 TIME:   0.016 TIME LEFT:  2.00D  GRAD.:     7.945 HEAT:  224.0477
 CYCLE:   110 TIME:   0.012 TIME LEFT:  2.00D  GRAD.:     6.327 HEAT:  224.0415
 CYCLE:   111 TIME:   0.016 TIME LEFT:  2.00D  GRAD.:     8.610 HEAT:  224.0212
 CYCLE:   112 TIME:   0.012 TIME LEFT:  2.00D  GRAD.:     4.753 HEAT:  223.9984
 CYCLE:   113 TIME:   0.012 TIME LEFT:  2.00D  GRAD.:     4.035 HEAT:  223.9835
 CYCLE:   114 TIME:   0.016 TIME LEFT:  2.00D  GRAD.:     5.311 HEAT:  223.9589
 CYCLE:   115 TIME:   0.008 TIME LEFT:  2.00D  GRAD.:     2.405 HEAT:  223.9518
 CYCLE:   116 TIME:   0.008 TIME LEFT:  2.00D  GRAD.:     3.679 HEAT:  223.9479
 CYCLE:   117 TIME:   0.012 TIME LEFT:  2.00D  GRAD.:     2.391 HEAT:  223.9432
 CYCLE:   118 TIME:   0.012 TIME LEFT:  2.00D  GRAD.:     2.533 HEAT:  223.9314
 CYCLE:   119 TIME:   0.008 TIME LEFT:  2.00D  GRAD.:     1.980 HEAT:  223.9274
 CYCLE:   120 TIME:   0.012 TIME LEFT:  2.00D  GRAD.:     3.041 HEAT:  223.9161
 CYCLE:   121 TIME:   0.008 TIME LEFT:  2.00D  GRAD.:     2.083 HEAT:  223.9126
 CYCLE:   122 TIME:   0.020 TIME LEFT:  2.00D  GRAD.:    11.861 HEAT:  223.9044
 CYCLE:   123 TIME:   0.016 TIME LEFT:  2.00D  GRAD.:     3.277 HEAT:  223.8927
 CYCLE:   124 TIME:   0.012 TIME LEFT:  2.00D  GRAD.:     3.079 HEAT:  223.8775
 CYCLE:   125 TIME:   0.008 TIME LEFT:  2.00D  GRAD.:     2.666 HEAT:  223.8719
 CYCLE:   126 TIME:   0.008 TIME LEFT:  2.00D  GRAD.:     2.339 HEAT:  223.8654
 CYCLE:   127 TIME:   0.008 TIME LEFT:  2.00D  GRAD.:     1.941 HEAT:  223.8604
 CYCLE:   128 TIME:   0.012 TIME LEFT:  2.00D  GRAD.:     2.458 HEAT:  223.8566
 CYCLE:   129 TIME:   0.012 TIME LEFT:  2.00D  GRAD.:     1.547 HEAT:  223.8459
 CYCLE:   130 TIME:   0.008 TIME LEFT:  2.00D  GRAD.:     1.850 HEAT:  223.8409
 CYCLE:   131 TIME:   0.008 TIME LEFT:  2.00D  GRAD.:     1.785 HEAT:  223.8392
 CYCLE:   132 TIME:   0.008 TIME LEFT:  2.00D  GRAD.:     2.646 HEAT:  223.8366
 CYCLE:   133 TIME:   0.016 TIME LEFT:  2.00D  GRAD.:     1.776 HEAT:  223.8286
 CYCLE:   134 TIME:   0.012 TIME LEFT:  2.00D  GRAD.:     2.833 HEAT:  223.8164
 CYCLE:   135 TIME:   0.008 TIME LEFT:  2.00D  GRAD.:     1.486 HEAT:  223.8113
 CYCLE:   136 TIME:   0.008 TIME LEFT:  2.00D  GRAD.:     1.220 HEAT:  223.8066
 CYCLE:   137 TIME:   0.008 TIME LEFT:  2.00D  GRAD.:     1.023 HEAT:  223.8031
 CYCLE:   138 TIME:   0.020 TIME LEFT:  2.00D  GRAD.:     9.446 HEAT:  223.7866
 CYCLE:   139 TIME:   0.027 TIME LEFT:  2.00D  GRAD.:     3.446 HEAT:  223.7785
 CYCLE:   140 TIME:   0.020 TIME LEFT:  2.00D  GRAD.:     2.047 HEAT:  223.7824
 CYCLE:   141 TIME:   0.043 TIME LEFT:  2.00D  GRAD.:     1.466 HEAT:  223.7921
 CYCLE:   142 TIME:   0.008 TIME LEFT:  2.00D  GRAD.:     1.065 HEAT:  223.7871
 CYCLE:   143 TIME:   0.008 TIME LEFT:  2.00D  GRAD.:     1.755 HEAT:  223.7867
 CYCLE:   144 TIME:   0.008 TIME LEFT:  2.00D  GRAD.:     1.116 HEAT:  223.7844
 CYCLE:   145 TIME:   0.008 TIME LEFT:  2.00D  GRAD.:     1.724 HEAT:  223.7808
 CYCLE:   146 TIME:   0.012 TIME LEFT:  2.00D  GRAD.:     1.549 HEAT:  223.7789
 CYCLE:   147 TIME:   0.008 TIME LEFT:  2.00D  GRAD.:     0.993 HEAT:  223.7761

     GRADIENT =  0.99309 IS LESS THAN CUTOFF =  1.00000



 -------------------------------------------------------------------------------
 XYZ RAPID MOZYME PM7 LOG PDBOUT
 candidates/carbazochrome.pdb



     GEOMETRY OPTIMISED USING EIGENVECTOR FOLLOWING (EF).     
     SCF FIELD WAS ACHIEVED                                   


                              PM7 CALCULATION
                                                       MOPAC2016 (Version: 20.079L)
                                                       Sun Mar 22 14:15:14 2020
                                                       No. of days remaining = 182




          FINAL HEAT OF FORMATION =        223.77550 KCAL/MOL =     936.27670 KJ/MOL


          TOTAL ENERGY            =      -2848.03178 EV
          ELECTRONIC ENERGY       =     -13318.60213 EV
          CORE-CORE REPULSION     =      10470.57035 EV

          GRADIENT NORM           =          0.99309 = 0.24086 PER ATOM
          NO. OF FILLED LEVELS    =         39
          MOLECULAR WEIGHT        =        224.1350

          MOLECULAR DIMENSIONS (Angstroms)

            Atom       Atom       Distance
            N     7    O     2    11.87300
            C    16    N     6     5.92485
            O     2    O     1     1.67018


          SCF CALCULATIONS        =        172
 
          WALL-CLOCK TIME         =          3.281 SECONDS
          COMPUTATION TIME        =         12.509 SECONDS




   ATOM                 CHEMICAL                   X               Y               Z
  NUMBER                 SYMBOL               (ANGSTROMS)     (ANGSTROMS)     (ANGSTROMS)
 
     1       O(ATOM      1  O1  UNK A   1)    2.41739034  *  -1.80873994  *   0.50007335  *
     2       O(ATOM      2  O2  UNK A   1)    2.61388518  *   5.20095239  *  -0.12600810  *
     3       O(ATOM      3  O3  UNK A   1)   -2.28563898  *  -2.91129401  *  -0.22902909  *
     4       N(ATOM      4  N1  UNK A   1)    4.70156996  *   0.19509409  *  -0.45428545  *
     5       N(ATOM      5  N2  UNK A   1)   -2.20885890  *  -0.97948999  *   0.92029192  *
     6       N(ATOM      6  N3  UNK A   1)   -2.89259624  *  -1.92914409  *   0.63477734  *
     7       N(ATOM      7  N4  UNK A   1)   -3.84518640  *  -4.73759954  *  -0.81430498  *
     8       C(ATOM      8  C1  UNK A   1)    1.43784794  *   0.30963157  *   0.13858592  *
     9       C(ATOM      9  C2  UNK A   1)    1.70739542  *   1.60871389  *   0.06732683  *
    10       C(ATOM     10  C3  UNK A   1)    2.50886707  *  -0.71892929  *  -0.00530537  *
    11       C(ATOM     11  C4  UNK A   1)   -0.96175870  *  -0.60785810  *   0.60350446  *
    12       C(ATOM     12  C5  UNK A   1)    0.15539652  *  -0.16530017  *   0.39329124  *
    13       C(ATOM     13  C6  UNK A   1)    2.32029636  *   4.08782406  *  -0.06776310  *
    14       C(ATOM     14  C7  UNK A   1)    2.01281878  *   2.82948537  *  -0.00283806  *
    15       C(ATOM     15  CA  UNK A   1)    3.62039082  *  -0.39596783  *  -0.96734838  *
    16       C(ATOM     16  C8  UNK A   1)    5.74774253  *   0.70434930  *  -0.12797686  *
    17       C(ATOM     17  C9  UNK A   1)   -3.15249531  *  -3.86299678  *  -0.50823494  *

                             CARTESIAN COORDINATES

   1    O        2.417390339    -1.808739937     0.500073353
   2    O        2.613885183     5.200952386    -0.126008100
   3    O       -2.285638980    -2.911294011    -0.229029095
   4    N        4.701569964     0.195094091    -0.454285447
   5    N       -2.208858901    -0.979489986     0.920291920
   6    N       -2.892596241    -1.929144088     0.634777341
   7    N       -3.845186404    -4.737599538    -0.814304981
   8    C        1.437847940     0.309631570     0.138585918
   9    C        1.707395424     1.608713886     0.067326829
  10    C        2.508867075    -0.718929294    -0.005305369
  11    C       -0.961758702    -0.607858098     0.603504459
  12    C        0.155396517    -0.165300168     0.393291238
  13    C        2.320296356     4.087824058    -0.067763102
  14    C        2.012818784     2.829485365    -0.002838056
  15    C        3.620390824    -0.395967827    -0.967348384
  16    C        5.747742526     0.704349295    -0.127976863
  17    C       -3.152495312    -3.862996780    -0.508234938


           Empirical Formula: C10 N4 O3  =    17 atoms



              NET ATOMIC CHARGES AND DIPOLE CONTRIBUTIONS

  ATOM NO.                 TYPE                        CHARGE      No. of ELECS.   s-Pop       p-Pop       
    1          O(ATOM      1  O1  UNK A   1)          -0.368738        6.3687     1.88146     4.48728
    2          O(ATOM      2  O2  UNK A   1)          -0.175715        6.1757     1.86952     4.30620
    3          O(ATOM      3  O3  UNK A   1)          -0.202338        6.2023     1.90541     4.29692
    4          N(ATOM      4  N1  UNK A   1)          -0.644874        5.6449     1.59318     4.05169
    5          N(ATOM      5  N2  UNK A   1)          -0.010025        5.0100     1.65681     3.35322
    6          N(ATOM      6  N3  UNK A   1)           0.103232        4.8968     1.82843     3.06834
    7          N(ATOM      7  N4  UNK A   1)          -0.269731        5.2697     1.83800     3.43173
    8          C(ATOM      8  C1  UNK A   1)          -0.353424        4.3534     1.02262     3.33080
    9          C(ATOM      9  C2  UNK A   1)           0.464479        3.5355     1.11708     2.41844
   10          C(ATOM     10  C3  UNK A   1)           0.314196        3.6858     1.15750     2.52830
   11          C(ATOM     11  C4  UNK A   1)          -0.096717        4.0967     1.03248     3.06424
   12          C(ATOM     12  C5  UNK A   1)           0.126923        3.8731     1.06715     2.80593
   13          C(ATOM     13  C6  UNK A   1)           0.625104        3.3749     1.11550     2.25939
   14          C(ATOM     14  C7  UNK A   1)          -0.584278        4.5843     0.98992     3.59436
   15          C(ATOM     15  CA  UNK A   1)           0.354861        3.6451     1.59223     2.05290
   16          C(ATOM     16  C8  UNK A   1)           0.451079        3.5489     1.75056     1.79836
   17          C(ATOM     17  C9  UNK A   1)           0.265966        3.7340     1.08841     2.64562

          NET CHARGE ON RESIDUES

      Residue         Charge  Anion or
                              Cation?
      UNK A   1       +0.000
 


 DIPOLE           X         Y         Z       TOTAL
 POINT-CHG.     6.435     8.677    -0.729    10.827
 HYBRID        -0.038     0.485     1.106     1.208
 SUM            6.397     9.162     0.377    11.180


          ATOMIC ORBITAL ELECTRON POPULATIONS

                   Atom                  s        px        py        pz   
    1  O(ATOM      1  O1  UNK A   1)   1.88146   1.77923   1.28634   1.42172
    2  O(ATOM      2  O2  UNK A   1)   1.86952   1.47080   1.23319   1.60221
    3  O(ATOM      3  O3  UNK A   1)   1.90541   1.30683   1.35748   1.63261
    4  N(ATOM      4  N1  UNK A   1)   1.59318   1.26309   1.38695   1.40165
    5  N(ATOM      5  N2  UNK A   1)   1.65681   1.10128   1.10320   1.14874
    6  N(ATOM      6  N3  UNK A   1)   1.82843   1.15744   0.91019   1.00070
    7  N(ATOM      7  N4  UNK A   1)   1.83800   1.11715   1.15918   1.15540
    8  C(ATOM      8  C1  UNK A   1)   1.02262   1.03016   0.97848   1.32216
    9  C(ATOM      9  C2  UNK A   1)   1.11708   0.69636   0.92677   0.79531
   10  C(ATOM     10  C3  UNK A   1)   1.15750   0.91441   0.84793   0.76596
   11  C(ATOM     11  C4  UNK A   1)   1.03248   0.91112   1.04108   1.11203
   12  C(ATOM     12  C5  UNK A   1)   1.06715   0.92113   0.97593   0.90887
   13  C(ATOM     13  C6  UNK A   1)   1.11550   0.67343   0.84920   0.73676
   14  C(ATOM     14  C7  UNK A   1)   0.98992   1.22180   0.96845   1.40410
   15  C(ATOM     15  CA  UNK A   1)   1.59223   0.63140   0.31774   1.10377
   16  C(ATOM     16  C8  UNK A   1)   1.75056   0.74158   0.45941   0.59737
   17  C(ATOM     17  C9  UNK A   1)   1.08841   0.88754   0.85196   0.90612

 **********************
 *                    *
 * JOB ENDED NORMALLY *
 *                    *
 **********************



 TOTAL JOB TIME:             3.28 SECONDS

 == MOPAC DONE ==
