 *******************************************************************************
 ** Site#: 4000  E-mail support:    MrMOPAC@ATT.net    Version 20.079L 64BITS **
 *******************************************************************************
 ** Cite this program as: MOPAC2016, Version: 20.079L, James J. P. Stewart,   **
 ** Stewart Computational Chemistry, web: HTTP://OpenMOPAC.net. Days left: 182**
 *******************************************************************************
 **                                                                           **
 **                                MOPAC2016                                  **
 **                                                                           **
 *******************************************************************************

                              PM7 CALCULATION RESULTS

 *******************************************************************************
 *  CALCULATION DONE:                                Sun Mar 22 14:14:35 2020  *
 *  PM7        - The PM7 Hamiltonian to be used
 *  PDBOUT     - PRINT GEOMETY IN PDB FORMAT
 *  MOZYME     - USE LOCALIZED M.O.s IN SOLVING THE SCF EQUATIONS
 *  RAPID      - IN MOZYME SCF, USE ATOMS BEING OPTIMIZED ONLY
 *  RESIDUES   - DETERMINE THE SEQUENCE OF RESIDUES
 *  XYZ        - CARTESIAN COORDINATE SYSTEM TO BE USED
 *  T=         - A TIME OF 172800.0 SECONDS REQUESTED
 *  DUMP=N     - RESTART FILE WRITTEN EVERY  7200.000 SECONDS
 *  LOG        - GENERATE A LOG FILE
 *******************************************************************************
XYZ RAPID MOZYME PM7 LOG PDBOUT
 candidates/pemirolast.pdb

   ATOM   CHEMICAL          X               Y               Z
  NUMBER   SYMBOL      (ANGSTROMS)     (ANGSTROMS)     (ANGSTROMS)
 
     1       O          8.18500000  *  -2.51500000  *   0.00000000  *
     2       N          9.51900000  *  -0.20500000  *   0.00000000  *
     3       N          8.18500000  *   2.10500000  *   0.00000000  *
     4       N          5.35600000  *  -2.50600000  *   0.00000000  *
     5       N          4.11000000  *  -0.34800000  *   0.00000000  *
     6       N          3.85000000  *  -2.82600000  *   0.00000000  *
     7       N          3.08000000  *  -1.49300000  *   0.00000000  *
     8       C          9.51900000  *   1.33500000  *   0.00000000  *
     9       C         10.89500000  *   2.15900000  *   0.00000000  *
    10       C          8.18500000  *  -0.97500000  *   0.00000000  *
    11       C          6.85100000  *  -0.20500000  *   0.00000000  *
    12       C         10.89500000  *  -1.02800000  *   0.00000000  *
    13       C         12.29100000  *   1.36700000  *   0.00000000  *
    14       C          6.85100000  *   1.33500000  *   0.00000000  *
    15       C         12.29100000  *  -0.23700000  *   0.00000000  *
    16       C         10.87700000  *   3.69900000  *   0.00000000  *
    17       C          5.51700000  *  -0.97500000  *   0.00000000  *
 


          CARTESIAN COORDINATES 

    NO.       ATOM           X           Y           Z

     1         O          8.1850     -2.5150      0.0000
     2         N          9.5190     -0.2050      0.0000
     3         N          8.1850      2.1050      0.0000
     4         N          5.3560     -2.5060      0.0000
     5         N          4.1100     -0.3480      0.0000
     6         N          3.8500     -2.8260      0.0000
     7         N          3.0800     -1.4930      0.0000
     8         C          9.5190      1.3350      0.0000
     9         C         10.8950      2.1590      0.0000
    10         C          8.1850     -0.9750      0.0000
    11         C          6.8510     -0.2050      0.0000
    12         C         10.8950     -1.0280      0.0000
    13         C         12.2910      1.3670      0.0000
    14         C          6.8510      1.3350      0.0000
    15         C         12.2910     -0.2370      0.0000
    16         C         10.8770      3.6990      0.0000
    17         C          5.5170     -0.9750      0.0000

 General Reference for PM7:
 "Optimization of Parameters for Semiempirical Methods VI: More Modifications to the 
 NDDO Approximations and Re-optimization of Parameters", J. J. P. Stewart, J. Mol. Mod., 1:32, 19 (2013)
 http://www.springerlink.com/openurl.asp?genre=article&id=doi:10.1007/s00894-012-1667-x

           Empirical Formula: C10 N6 O  =    17 atoms



      MOLECULAR POINT GROUP   :   Cs  

   TOPOGRAPHY OF SYSTEM

   ATOM No.                  LABEL                 Atoms connected to this atom
      1          O (HETATM    1  O   HET A   1)      10
      2          N (HETATM    2  N1  HET A   1)       8     10     12
      3          N (HETATM    3  N2  HET A   1)       8     14
      4          N (HETATM    4  N3  HET A   1)       6     17
      5          N (HETATM    5  N4  HET A   1)       7     17
      6          N (HETATM    6  N5  HET A   1)       4      7
      7          N (HETATM    7  N6  HET A   1)       5      6
      8          C (HETATM    8  C1  HET A   1)       2      3      9
      9          C (HETATM    9  C2  HET A   1)       8     13     16
     10          C (HETATM   10  C3  HET A   1)       1      2     11
     11          C (HETATM   11  C4  HET A   1)      10     14     17
     12          C (HETATM   12  C5  HET A   1)       2     15
     13          C (HETATM   13  C6  HET A   1)       9     15
     14          C (HETATM   14  C7  HET A   1)       3     11
     15          C (HETATM   15  C8  HET A   1)      12     13
     16          C (HETATM   16  C9  HET A   1)       9
     17          C (HETATM   17  C10 HET A   1)       4      5     11

   Ion Atom No.           Label               Charge (Distances are between charged sites predicted by Lewis structure theory)
 
    1   N    5   (HETATM    5  N4  HET A   1)   +1
    2   C   14   (HETATM   14  C7  HET A   1)   +1

          COMPUTED CHARGE ON SYSTEM: +2
  
          BECAUSE KEYWORD "CHARGE" WAS NOT USED, THE COMPUTED CHARGE OF +2 WILL BE USED IN THIS RUN.

          If the Lewis structure used by MOZYME is incorrect, use keywords such as CVB or SETPI to correct it

          For more information, see: HTTP://OpenMOPAC.net/Manual/setpi.html


          Geometry optimization using EF

          DIAGONAL MATRIX USED AS START HESSIAN

 CYCLE:     1 TIME:   0.012 TIME LEFT:  2.00D  GRAD.:   761.450 HEAT:  1425.967
 CYCLE:     2 TIME:   0.012 TIME LEFT:  2.00D  GRAD.:   703.795 HEAT:  1275.843
 CYCLE:     3 TIME:   0.012 TIME LEFT:  2.00D  GRAD.:   326.985 HEAT:  1080.440
 CYCLE:     4 TIME:   0.031 TIME LEFT:  2.00D  GRAD.:   309.322 HEAT:  1045.115
 CYCLE:     5 TIME:   0.016 TIME LEFT:  2.00D  GRAD.:   256.324 HEAT:  1018.882
 CYCLE:     6 TIME:   0.020 TIME LEFT:  2.00D  GRAD.:   493.959 HEAT:  1018.732
 CYCLE:     7 TIME:   0.031 TIME LEFT:  2.00D  GRAD.:   253.191 HEAT:  993.9704
 CYCLE:     8 TIME:   0.016 TIME LEFT:  2.00D  GRAD.:   272.455 HEAT:  988.3956
 CYCLE:     9 TIME:   0.020 TIME LEFT:  2.00D  GRAD.:   287.219 HEAT:  984.2011
 CYCLE:    10 TIME:   0.027 TIME LEFT:  2.00D  GRAD.:   171.065 HEAT:  975.3921
 CYCLE:    11 TIME:   0.016 TIME LEFT:  2.00D  GRAD.:   149.238 HEAT:  973.3316
 CYCLE:    12 TIME:   0.016 TIME LEFT:  2.00D  GRAD.:   182.900 HEAT:  973.1337
 CYCLE:    13 TIME:   0.020 TIME LEFT:  2.00D  GRAD.:   197.795 HEAT:  972.0968
 CYCLE:    14 TIME:   0.012 TIME LEFT:  2.00D  GRAD.:   111.733 HEAT:  968.9328
 CYCLE:    15 TIME:   0.031 TIME LEFT:  2.00D  GRAD.:    63.520 HEAT:  966.7382
 CYCLE:    16 TIME:   0.027 TIME LEFT:  2.00D  GRAD.:    46.244 HEAT:  966.0818
 CYCLE:    17 TIME:   0.012 TIME LEFT:  2.00D  GRAD.:    41.356 HEAT:  965.4078
 CYCLE:    18 TIME:   0.012 TIME LEFT:  2.00D  GRAD.:    58.257 HEAT:  964.7348
 CYCLE:    19 TIME:   0.016 TIME LEFT:  2.00D  GRAD.:    90.854 HEAT:  964.2453
 CYCLE:    20 TIME:   0.012 TIME LEFT:  2.00D  GRAD.:    80.669 HEAT:  963.0407
 CYCLE:    21 TIME:   0.016 TIME LEFT:  2.00D  GRAD.:    36.345 HEAT:  961.4157
 CYCLE:    22 TIME:   0.016 TIME LEFT:  2.00D  GRAD.:    95.272 HEAT:  960.7434
 CYCLE:    23 TIME:   0.016 TIME LEFT:  2.00D  GRAD.:    44.985 HEAT:  957.4309
 CYCLE:    24 TIME:   0.016 TIME LEFT:  2.00D  GRAD.:   103.131 HEAT:  956.0252
 CYCLE:    25 TIME:   0.016 TIME LEFT:  2.00D  GRAD.:    82.144 HEAT:  951.3830
 CYCLE:    26 TIME:   0.016 TIME LEFT:  2.00D  GRAD.:   144.862 HEAT:  951.2558
 CYCLE:    27 TIME:   0.016 TIME LEFT:  2.00D  GRAD.:    93.474 HEAT:  946.1281
 CYCLE:    28 TIME:   0.047 TIME LEFT:  2.00D  GRAD.:    64.606 HEAT:  944.1110
 CYCLE:    29 TIME:   0.016 TIME LEFT:  2.00D  GRAD.:    48.429 HEAT:  943.1464
 CYCLE:    30 TIME:   0.016 TIME LEFT:  2.00D  GRAD.:    62.118 HEAT:  942.5878
 CYCLE:    31 TIME:   0.016 TIME LEFT:  2.00D  GRAD.:    37.378 HEAT:  941.3340
 CYCLE:    32 TIME:   0.016 TIME LEFT:  2.00D  GRAD.:    56.613 HEAT:  940.9335
 CYCLE:    33 TIME:   0.016 TIME LEFT:  2.00D  GRAD.:    87.121 HEAT:  940.5498
 CYCLE:    34 TIME:   0.016 TIME LEFT:  2.00D  GRAD.:    72.833 HEAT:  939.5982
 CYCLE:    35 TIME:   0.016 TIME LEFT:  2.00D  GRAD.:    80.964 HEAT:  938.9302
 CYCLE:    36 TIME:   0.027 TIME LEFT:  2.00D  GRAD.:    85.011 HEAT:  938.6894
 CYCLE:    37 TIME:   0.016 TIME LEFT:  2.00D  GRAD.:    53.146 HEAT:  937.7747
 CYCLE:    38 TIME:   0.012 TIME LEFT:  2.00D  GRAD.:    54.449 HEAT:  937.5605
 CYCLE:    39 TIME:   0.016 TIME LEFT:  2.00D  GRAD.:    27.189 HEAT:  936.5801
 CYCLE:    40 TIME:   0.012 TIME LEFT:  2.00D  GRAD.:    39.144 HEAT:  936.1587
 CYCLE:    41 TIME:   0.016 TIME LEFT:  2.00D  GRAD.:    18.331 HEAT:  935.1921
 CYCLE:    42 TIME:   0.016 TIME LEFT:  2.00D  GRAD.:    28.639 HEAT:  934.2379
 CYCLE:    43 TIME:   0.016 TIME LEFT:  2.00D  GRAD.:    40.623 HEAT:  933.3948
 CYCLE:    44 TIME:   0.020 TIME LEFT:  2.00D  GRAD.:    57.032 HEAT:  933.0626
 CYCLE:    45 TIME:   0.016 TIME LEFT:  2.00D  GRAD.:    48.953 HEAT:  932.6507
 CYCLE:    46 TIME:   0.031 TIME LEFT:  2.00D  GRAD.:    30.463 HEAT:  932.4501
 CYCLE:    47 TIME:   0.012 TIME LEFT:  2.00D  GRAD.:    14.656 HEAT:  932.1644
 CYCLE:    48 TIME:   0.016 TIME LEFT:  2.00D  GRAD.:    18.091 HEAT:  932.0390
 CYCLE:    49 TIME:   0.012 TIME LEFT:  2.00D  GRAD.:     9.981 HEAT:  931.9080
 CYCLE:    50 TIME:   0.016 TIME LEFT:  2.00D  GRAD.:    17.070 HEAT:  931.6059
 CYCLE:    51 TIME:   0.016 TIME LEFT:  2.00D  GRAD.:    14.302 HEAT:  931.2964
 CYCLE:    52 TIME:   0.016 TIME LEFT:  2.00D  GRAD.:    32.869 HEAT:  930.6373
 CYCLE:    53 TIME:   0.020 TIME LEFT:  2.00D  GRAD.:    79.088 HEAT:  929.4578
 CYCLE:    54 TIME:   0.055 TIME LEFT:  2.00D  GRAD.:   110.087 HEAT:  928.9506
 CYCLE:    55 TIME:   0.016 TIME LEFT:  2.00D  GRAD.:   109.518 HEAT:  927.1561
 CYCLE:    56 TIME:   0.020 TIME LEFT:  2.00D  GRAD.:   188.805 HEAT:  925.9568
 CYCLE:    57 TIME:   0.016 TIME LEFT:  2.00D  GRAD.:    88.267 HEAT:  920.6933
 CYCLE:    58 TIME:   0.047 TIME LEFT:  2.00D  GRAD.:    63.797 HEAT:  919.1914
 CYCLE:    59 TIME:   0.016 TIME LEFT:  2.00D  GRAD.:    69.813 HEAT:  918.5854
 CYCLE:    60 TIME:   0.027 TIME LEFT:  2.00D  GRAD.:    43.253 HEAT:  918.1382
 CYCLE:    61 TIME:   0.016 TIME LEFT:  2.00D  GRAD.:    31.593 HEAT:  917.6882
 CYCLE:    62 TIME:   0.016 TIME LEFT:  2.00D  GRAD.:    28.996 HEAT:  917.4922
 CYCLE:    63 TIME:   0.012 TIME LEFT:  2.00D  GRAD.:    27.559 HEAT:  917.0052
 CYCLE:    64 TIME:   0.016 TIME LEFT:  2.00D  GRAD.:    22.704 HEAT:  916.7507
 CYCLE:    65 TIME:   0.039 TIME LEFT:  2.00D  GRAD.:    19.893 HEAT:  916.6078
 CYCLE:    66 TIME:   0.016 TIME LEFT:  2.00D  GRAD.:    14.378 HEAT:  916.4213
 CYCLE:    67 TIME:   0.012 TIME LEFT:  2.00D  GRAD.:    11.116 HEAT:  916.2870
 CYCLE:    68 TIME:   0.012 TIME LEFT:  2.00D  GRAD.:    15.259 HEAT:  916.1945
 CYCLE:    69 TIME:   0.016 TIME LEFT:  2.00D  GRAD.:     7.491 HEAT:  916.1219
 CYCLE:    70 TIME:   0.012 TIME LEFT:  2.00D  GRAD.:    13.002 HEAT:  916.0892
 CYCLE:    71 TIME:   0.008 TIME LEFT:  2.00D  GRAD.:     8.653 HEAT:  916.0214
 CYCLE:    72 TIME:   0.012 TIME LEFT:  2.00D  GRAD.:     6.016 HEAT:  915.9854
 CYCLE:    73 TIME:   0.016 TIME LEFT:  2.00D  GRAD.:    10.209 HEAT:  915.9255
 CYCLE:    74 TIME:   0.012 TIME LEFT:  2.00D  GRAD.:     7.059 HEAT:  915.8993
 CYCLE:    75 TIME:   0.012 TIME LEFT:  2.00D  GRAD.:     7.754 HEAT:  915.8718
 CYCLE:    76 TIME:   0.008 TIME LEFT:  2.00D  GRAD.:     4.948 HEAT:  915.8550
 CYCLE:    77 TIME:   0.012 TIME LEFT:  2.00D  GRAD.:     4.282 HEAT:  915.8536
 CYCLE:    78 TIME:   0.008 TIME LEFT:  2.00D  GRAD.:     2.426 HEAT:  915.8440
 CYCLE:    79 TIME:   0.008 TIME LEFT:  2.00D  GRAD.:     3.431 HEAT:  915.8434
 CYCLE:    80 TIME:   0.004 TIME LEFT:  2.00D  GRAD.:     3.030 HEAT:  915.8415
 CYCLE:    81 TIME:   0.008 TIME LEFT:  2.00D  GRAD.:     3.609 HEAT:  915.8424
 CYCLE:    82 TIME:   0.012 TIME LEFT:  2.00D  GRAD.:     2.499 HEAT:  915.8376
 CYCLE:    83 TIME:   0.008 TIME LEFT:  2.00D  GRAD.:     2.309 HEAT:  915.8364
 CYCLE:    84 TIME:   0.004 TIME LEFT:  2.00D  GRAD.:     1.318 HEAT:  915.8346
 CYCLE:    85 TIME:   0.008 TIME LEFT:  2.00D  GRAD.:     2.011 HEAT:  915.8346
 CYCLE:    86 TIME:   0.008 TIME LEFT:  2.00D  GRAD.:     1.432 HEAT:  915.8335
 CYCLE:    87 TIME:   0.008 TIME LEFT:  2.00D  GRAD.:     1.457 HEAT:  915.8326
 CYCLE:    88 TIME:   0.004 TIME LEFT:  2.00D  GRAD.:     1.420 HEAT:  915.8323
 CYCLE:    89 TIME:   0.008 TIME LEFT:  2.00D  GRAD.:     0.875 HEAT:  915.8314

     GRADIENT =  0.87515 IS LESS THAN CUTOFF =  1.00000



 -------------------------------------------------------------------------------
 XYZ RAPID MOZYME PM7 LOG PDBOUT CHARGE=2
 candidates/pemirolast.pdb



     GEOMETRY OPTIMISED USING EIGENVECTOR FOLLOWING (EF).     
     SCF FIELD WAS ACHIEVED                                   


                              PM7 CALCULATION
                                                       MOPAC2016 (Version: 20.079L)
                                                       Sun Mar 22 14:14:36 2020
                                                       No. of days remaining = 182




          FINAL HEAT OF FORMATION =        915.83117 KCAL/MOL =    3831.83763 KJ/MOL


          TOTAL ENERGY            =      -2604.12591 EV
          ELECTRONIC ENERGY       =     -13349.68191 EV
          CORE-CORE REPULSION     =      10745.55600 EV

          GRADIENT NORM           =          0.87515 = 0.21226 PER ATOM
          NO. OF FILLED LEVELS    =         37
          MOLECULAR WEIGHT        =        220.1496

          MOLECULAR DIMENSIONS (Angstroms)

            Atom       Atom       Distance
            C    15    N     6    10.62212
            N     7    C    12     4.97392
            C    16    O     1     0.09933


          SCF CALCULATIONS        =        107
 
          WALL-CLOCK TIME         =          1.773 SECONDS
          COMPUTATION TIME        =          6.095 SECONDS




   ATOM                 CHEMICAL                   X               Y               Z
  NUMBER                 SYMBOL               (ANGSTROMS)     (ANGSTROMS)     (ANGSTROMS)
 
     1       O(HETATM    1  O   HET A   1)    8.06933771  *  -3.10616478  *   0.02352906  *
     2       N(HETATM    2  N1  HET A   1)   10.63648860  *  -0.74229824  *  -0.03389096  *
     3       N(HETATM    3  N2  HET A   1)    8.72442153  *   0.85554676  *  -0.01039165  *
     4       N(HETATM    4  N3  HET A   1)    4.53389163  *  -2.03690398  *   0.01697131  *
     5       N(HETATM    5  N4  HET A   1)    4.54601119  *   0.31539383  *  -0.00844678  *
     6       N(HETATM    6  N5  HET A   1)    3.38553061  *  -1.62272398  *   0.01368289  *
     7       N(HETATM    7  N6  HET A   1)    3.39636732  *  -0.09366891  *  -0.00303076  *
     8       C(HETATM    8  C1  HET A   1)   10.08282252  *   0.44326369  *  -0.01300500  *
     9       C(HETATM    9  C2  HET A   1)   10.56942650  *   1.89577036  *   0.00278087  *
    10       C(HETATM   10  C3  HET A   1)    7.50537927  *  -2.12250724  *   0.01409858  *
    11       C(HETATM   11  C4  HET A   1)    6.84654268  *  -0.90242800  *   0.00202678  *
    12       C(HETATM   12  C5  HET A   1)   11.42822132  *  -1.70751742  *  -0.05576866  *
    13       C(HETATM   13  C6  HET A   1)   11.74395853  *   2.41751205  *   0.02125060  *
    14       C(HETATM   14  C7  HET A   1)    7.42115129  *   0.49579500  *  -0.01105217  *
    15       C(HETATM   15  C8  HET A   1)   12.93117874  *   3.03660506  *   0.04116237  *
    16       C(HETATM   16  C9  HET A   1)    9.07655248  *   2.35745904  *  -0.00476412  *
    17       C(HETATM   17  C10 HET A   1)    5.48785737  *  -0.86065272  *   0.00322628  *

                             CARTESIAN COORDINATES

   1    O        8.069337711    -3.106164782     0.023529055
   2    N       10.636488599    -0.742298236    -0.033890965
   3    N        8.724421533     0.855546759    -0.010391650
   4    N        4.533891630    -2.036903983     0.016971310
   5    N        4.546011187     0.315393826    -0.008446775
   6    N        3.385530607    -1.622723982     0.013682887
   7    N        3.396367322    -0.093668909    -0.003030759
   8    C       10.082822524     0.443263691    -0.013005002
   9    C       10.569426504     1.895770357     0.002780874
  10    C        7.505379271    -2.122507241     0.014098577
  11    C        6.846542679    -0.902427998     0.002026780
  12    C       11.428221321    -1.707517416    -0.055768663
  13    C       11.743958528     2.417512046     0.021250604
  14    C        7.421151286     0.495794999    -0.011052165
  15    C       12.931178735     3.036605064     0.041162371
  16    C        9.076552479     2.357459037    -0.004764122
  17    C        5.487857367    -0.860652722     0.003226277


           Empirical Formula: C10 N6 O  =    17 atoms



              NET ATOMIC CHARGES AND DIPOLE CONTRIBUTIONS

  ATOM NO.                 TYPE                        CHARGE      No. of ELECS.   s-Pop       p-Pop       
    1          O(HETATM    1  O   HET A   1)           0.134313        5.8657     1.87147     3.99421
    2          N(HETATM    2  N1  HET A   1)          -0.745257        5.7453     1.60693     4.13832
    3          N(HETATM    3  N2  HET A   1)          -0.678066        5.6781     1.65565     4.02242
    4          N(HETATM    4  N3  HET A   1)          -0.159104        5.1591     1.79454     3.36456
    5          N(HETATM    5  N4  HET A   1)          -0.077204        5.0772     1.78996     3.28724
    6          N(HETATM    6  N5  HET A   1)           0.172853        4.8271     1.81996     3.00718
    7          N(HETATM    7  N6  HET A   1)           0.142018        4.8580     1.82046     3.03752
    8          C(HETATM    8  C1  HET A   1)           0.611500        3.3885     1.20526     2.18324
    9          C(HETATM    9  C2  HET A   1)          -0.189364        4.1894     1.16327     3.02610
   10          C(HETATM   10  C3  HET A   1)           0.541992        3.4580     1.19040     2.26761
   11          C(HETATM   11  C4  HET A   1)          -0.470247        4.4702     1.09034     3.37991
   12          C(HETATM   12  C5  HET A   1)           0.821014        3.1790     1.81152     1.36747
   13          C(HETATM   13  C6  HET A   1)          -0.495016        4.4950     1.15694     3.33807
   14          C(HETATM   14  C7  HET A   1)           0.523855        3.4761     1.63578     1.84037
   15          C(HETATM   15  C8  HET A   1)           0.714642        3.2854     1.79118     1.49417
   16          C(HETATM   16  C9  HET A   1)           0.739815        3.2602     1.80504     1.45514
   17          C(HETATM   17  C10 HET A   1)           0.412258        3.5877     1.26724     2.32050

          NET CHARGE ON RESIDUES

      Residue         Charge  Anion or
                              Cation?
      HET A   1       +2.000  CATION
 


 DIPOLE           X         Y         Z       TOTAL
 POINT-CHG.    10.141     1.400    -0.007    10.238
 HYBRID         1.131    -4.180     0.003     4.330
 SUM           11.272    -2.780    -0.005    11.610


          ATOMIC ORBITAL ELECTRON POPULATIONS

                   Atom                  s        px        py        pz   
    1  O(HETATM    1  O   HET A   1)   1.87147   1.34480   1.22400   1.42542
    2  N(HETATM    2  N1  HET A   1)   1.60693   1.44366   1.24865   1.44602
    3  N(HETATM    3  N2  HET A   1)   1.65565   1.13765   1.34911   1.53565
    4  N(HETATM    4  N3  HET A   1)   1.79454   1.03571   1.22786   1.10098
    5  N(HETATM    5  N4  HET A   1)   1.78996   1.01397   1.20347   1.06980
    6  N(HETATM    6  N5  HET A   1)   1.81996   1.09772   1.03049   0.87897
    7  N(HETATM    7  N6  HET A   1)   1.82046   1.10774   1.02519   0.90459
    8  C(HETATM    8  C1  HET A   1)   1.20526   0.82144   0.85747   0.50434
    9  C(HETATM    9  C2  HET A   1)   1.16327   1.13461   0.87206   1.01943
   10  C(HETATM   10  C3  HET A   1)   1.19040   0.73794   0.83504   0.69462
   11  C(HETATM   11  C4  HET A   1)   1.09034   1.06756   1.02345   1.28890
   12  C(HETATM   12  C5  HET A   1)   1.81152   0.46441   0.62417   0.27889
   13  C(HETATM   13  C6  HET A   1)   1.15694   1.13907   1.38630   0.81270
   14  C(HETATM   14  C7  HET A   1)   1.63578   0.74965   0.81731   0.27341
   15  C(HETATM   15  C8  HET A   1)   1.79118   0.85227   0.55997   0.08193
   16  C(HETATM   16  C9  HET A   1)   1.80504   0.74220   0.60393   0.10901
   17  C(HETATM   17  C10 HET A   1)   1.26724   0.97725   0.76727   0.57598

 **********************
 *                    *
 * JOB ENDED NORMALLY *
 *                    *
 **********************



 TOTAL JOB TIME:             1.77 SECONDS

 == MOPAC DONE ==
